# vtk DataFile Version 3.0
Heat Equation 1D
ASCII
DATASET STRUCTURED_POINTS
DIMENSIONS 2 101 31
ORIGIN 0 0 0
SPACING 1 1 1
POINT_DATA 6262
SCALARS solution float
LOOKUP_TABLE default
0 0
0.0314108 0.0314108
0.0627905 0.0627905
0.0941083 0.0941083
0.125333 0.125333
0.156434 0.156434
0.187381 0.187381
0.218143 0.218143
0.24869 0.24869
0.278991 0.278991
0.309017 0.309017
0.338738 0.338738
0.368125 0.368125
0.397148 0.397148
0.425779 0.425779
0.45399 0.45399
0.481754 0.481754
0.509041 0.509041
0.535827 0.535827
0.562083 0.562083
0.587785 0.587785
0.612907 0.612907
0.637424 0.637424
0.661312 0.661312
0.684547 0.684547
0.707107 0.707107
0.728969 0.728969
0.750111 0.750111
0.770513 0.770513
0.790155 0.790155
0.809017 0.809017
0.827081 0.827081
0.844328 0.844328
0.860742 0.860742
0.876307 0.876307
0.891007 0.891007
0.904827 0.904827
0.917755 0.917755
0.929776 0.929776
0.940881 0.940881
0.951057 0.951057
0.960294 0.960294
0.968583 0.968583
0.975917 0.975917
0.982287 0.982287
0.987688 0.987688
0.992115 0.992115
0.995562 0.995562
0.998027 0.998027
0.999507 0.999507
1 1
0.999507 0.999507
0.998027 0.998027
0.995562 0.995562
0.992115 0.992115
0.987688 0.987688
0.982287 0.982287
0.975917 0.975917
0.968583 0.968583
0.960294 0.960294
0.951057 0.951057
0.940881 0.940881
0.929776 0.929776
0.917755 0.917755
0.904827 0.904827
0.891007 0.891007
0.876307 0.876307
0.860742 0.860742
0.844328 0.844328
0.827081 0.827081
0.809017 0.809017
0.790155 0.790155
0.770513 0.770513
0.750111 0.750111
0.728969 0.728969
0.707107 0.707107
0.684547 0.684547
0.661312 0.661312
0.637424 0.637424
0.612907 0.612907
0.587785 0.587785
0.562083 0.562083
0.535827 0.535827
0.509041 0.509041
0.481754 0.481754
0.45399 0.45399
0.425779 0.425779
0.397148 0.397148
0.368125 0.368125
0.338738 0.338738
0.309017 0.309017
0.278991 0.278991
0.24869 0.24869
0.218143 0.218143
0.187381 0.187381
0.156434 0.156434
0.125333 0.125333
0.0941083 0.0941083
0.0627905 0.0627905
0.0314108 0.0314108
1.22465e-16 1.22465e-16
-3.20924e-13 -3.20924e-13
0.0285893 0.0285893
0.0571505 0.0571505
0.0856552 0.0856552
0.114075 0.114075
0.142383 0.142383
0.17055 0.17055
0.198549 0.198549
0.226352 0.226352
0.253931 0.253931
0.28126 0.28126
0.308311 0.308311
0.335058 0.335058
0.361475 0.361475
0.387534 0.387534
0.413212 0.413212
0.438481 0.438481
0.463318 0.463318
0.487697 0.487697
0.511595 0.511595
0.534988 0.534988
0.557854 0.557854
0.580168 0.580168
0.601911 0.601911
0.623059 0.623059
0.643592 0.643592
0.66349 0.66349
0.682734 0.682734
0.701303 0.701303
0.719181 0.719181
0.736348 0.736348
0.752789 0.752789
0.768487 0.768487
0.783427 0.783427
0.797594 0.797594
0.810973 0.810973
0.823552 0.823552
0.835319 0.835319
0.846261 0.846261
0.856368 0.856368
0.865629 0.865629
0.874037 0.874037
0.881582 0.881582
0.888257 0.888257
0.894055 0.894055
0.898971 0.898971
0.903 0.903
0.906137 0.906137
0.908381 0.908381
0.909727 0.909727
0.910177 0.910177
0.909727 0.909727
0.908381 0.908381
0.906137 0.906137
0.903 0.903
0.898971 0.898971
0.894055 0.894055
0.888257 0.888257
0.881582 0.881582
0.874037 0.874037
0.865629 0.865629
0.856368 0.856368
0.846261 0.846261
0.835319 0.835319
0.823552 0.823552
0.810973 0.810973
0.797594 0.797594
0.783427 0.783427
0.768487 0.768487
0.752789 0.752789
0.736348 0.736348
0.719181 0.719181
0.701303 0.701303
0.682734 0.682734
0.66349 0.66349
0.643592 0.643592
0.623059 0.623059
0.601911 0.601911
0.580168 0.580168
0.557854 0.557854
0.534988 0.534988
0.511595 0.511595
0.487697 0.487697
0.463318 0.463318
0.438481 0.438481
0.413212 0.413212
0.387534 0.387534
0.361475 0.361475
0.335058 0.335058
0.308311 0.308311
0.28126 0.28126
0.253931 0.253931
0.226352 0.226352
0.198549 0.198549
0.17055 0.17055
0.142383 0.142383
0.114075 0.114075
0.0856552 0.0856552
0.0571505 0.0571505
0.0285893 0.0285893
0 0
-6.15252e-13 -6.15252e-13
0.0260213 0.0260213
0.052017 0.052017
0.0779613 0.0779613
0.103829 0.103829
0.129594 0.129594
0.155231 0.155231
0.180715 0.180715
0.20602 0.20602
0.231122 0.231122
0.255996 0.255996
0.280618 0.280618
0.304962 0.304962
0.329006 0.329006
0.352725 0.352725
0.376095 0.376095
0.399095 0.399095
0.421701 0.421701
0.44389 0.44389
0.465642 0.465642
0.486934 0.486934
0.507745 0.507745
0.528056 0.528056
0.547845 0.547845
0.567093 0.567093
0.585782 0.585782
0.603893 0.603893
0.621408 0.621408
0.63831 0.63831
0.654581 0.654581
0.670207 0.670207
0.685171 0.685171
0.699459 0.699459
0.713057 0.713057
0.725951 0.725951
0.738129 0.738129
0.749578 0.749578
0.760288 0.760288
0.770247 0.770247
0.779446 0.779446
0.787876 0.787876
0.795528 0.795528
0.802395 0.802395
0.80847 0.80847
0.813748 0.813748
0.818222 0.818222
0.821889 0.821889
0.824745 0.824745
0.826787 0.826787
0.828013 0.828013
0.828421 0.828421
0.828013 0.828013
0.826787 0.826787
0.824745 0.824745
0.821889 0.821889
0.818222 0.818222
0.813748 0.813748
0.80847 0.80847
0.802395 0.802395
0.795528 0.795528
0.787876 0.787876
0.779446 0.779446
0.770247 0.770247
0.760288 0.760288
0.749578 0.749578
0.738129 0.738129
0.725951 0.725951
0.713057 0.713057
0.699459 0.699459
0.685171 0.685171
0.670207 0.670207
0.654581 0.654581
0.63831 0.63831
0.621408 0.621408
0.603893 0.603893
0.585782 0.585782
0.567093 0.567093
0.547845 0.547845
0.528056 0.528056
0.507745 0.507745
0.486934 0.486934
0.465642 0.465642
0.44389 0.44389
0.421701 0.421701
0.399095 0.399095
0.376095 0.376095
0.352725 0.352725
0.329006 0.329006
0.304962 0.304962
0.280618 0.280618
0.255996 0.255996
0.231122 0.231122
0.20602 0.20602
0.180715 0.180715
0.155231 0.155231
0.129594 0.129594
0.103829 0.103829
0.0779613 0.0779613
0.052017 0.052017
0.0260213 0.0260213
0 0
-6.86427e-13 -6.86427e-13
0.023684 0.023684
0.0473447 0.0473447
0.0709586 0.0709586
0.0945025 0.0945025
0.117953 0.117953
0.141287 0.141287
0.164482 0.164482
0.187515 0.187515
0.210362 0.210362
0.233002 0.233002
0.255412 0.255412
0.277569 0.277569
0.299453 0.299453
0.321042 0.321042
0.342313 0.342313
0.363247 0.363247
0.383822 0.383822
0.404019 0.404019
0.423816 0.423816
0.443196 0.443196
0.462138 0.462138
0.480624 0.480624
0.498636 0.498636
0.516155 0.516155
0.533165 0.533165
0.549649 0.549649
0.565591 0.565591
0.580974 0.580974
0.595785 0.595785
0.610007 0.610007
0.623627 0.623627
0.636631 0.636631
0.649008 0.649008
0.660744 0.660744
0.671828 0.671828
0.682248 0.682248
0.691996 0.691996
0.701061 0.701061
0.709433 0.709433
0.717106 0.717106
0.724071 0.724071
0.730321 0.730321
0.735851 0.735851
0.740654 0.740654
0.744727 0.744727
0.748064 0.748064
0.750663 0.750663
0.752522 0.752522
0.753638 0.753638
0.75401 0.75401
0.753638 0.753638
0.752522 0.752522
0.750663 0.750663
0.748064 0.748064
0.744727 0.744727
0.740654 0.740654
0.735851 0.735851
0.730321 0.730321
0.724071 0.724071
0.717106 0.717106
0.709433 0.709433
0.701061 0.701061
0.691996 0.691996
0.682248 0.682248
0.671828 0.671828
0.660744 0.660744
0.649008 0.649008
0.636631 0.636631
0.623627 0.623627
0.610007 0.610007
0.595785 0.595785
0.580974 0.580974
0.565591 0.565591
0.549649 0.549649
0.533165 0.533165
0.516155 0.516155
0.498636 0.498636
0.480624 0.480624
0.462138 0.462138
0.443196 0.443196
0.423816 0.423816
0.404019 0.404019
0.383822 0.383822
0.363247 0.363247
0.342313 0.342313
0.321042 0.321042
0.299453 0.299453
0.277569 0.277569
0.255412 0.255412
0.233002 0.233002
0.210362 0.210362
0.187515 0.187515
0.164482 0.164482
0.141287 0.141287
0.117953 0.117953
0.0945025 0.0945025
0.0709586 0.0709586
0.0473447 0.0473447
0.023684 0.023684
0 0
-4.96087e-13 -4.96087e-13
0.0215566 0.0215566
0.043092 0.043092
0.0645848 0.0645848
0.0860139 0.0860139
0.107358 0.107358
0.128596 0.128596
0.149708 0.149708
0.170671 0.170671
0.191467 0.191467
0.212073 0.212073
0.23247 0.23247
0.252637 0.252637
0.272555 0.272555
0.292205 0.292205
0.311565 0.311565
0.330619 0.330619
0.349346 0.349346
0.367728 0.367728
0.385748 0.385748
0.403386 0.403386
0.420627 0.420627
0.437453 0.437453
0.453846 0.453846
0.469792 0.469792
0.485275 0.485275
0.500278 0.500278
0.514788 0.514788
0.528789 0.528789
0.542269 0.542269
0.555214 0.555214
0.56761 0.56761
0.579447 0.579447
0.590712 0.590712
0.601393 0.601393
0.611482 0.611482
0.620966 0.620966
0.629838 0.629838
0.638089 0.638089
0.64571 0.64571
0.652693 0.652693
0.659032 0.659032
0.664721 0.664721
0.669754 0.669754
0.674126 0.674126
0.677833 0.677833
0.68087 0.68087
0.683236 0.683236
0.684928 0.684928
0.685943 0.685943
0.686282 0.686282
0.685943 0.685943
0.684928 0.684928
0.683236 0.683236
0.68087 0.68087
0.677833 0.677833
0.674126 0.674126
0.669754 0.669754
0.664721 0.664721
0.659032 0.659032
0.652693 0.652693
0.64571 0.64571
0.638089 0.638089
0.629838 0.629838
0.620966 0.620966
0.611482 0.611482
0.601393 0.601393
0.590712 0.590712
0.579447 0.579447
0.56761 0.56761
0.555214 0.555214
0.542269 0.542269
0.528789 0.528789
0.514788 0.514788
0.500278 0.500278
0.485275 0.485275
0.469792 0.469792
0.453846 0.453846
0.437453 0.437453
0.420627 0.420627
0.403386 0.403386
0.385748 0.385748
0.367728 0.367728
0.349346 0.349346
0.330619 0.330619
0.311565 0.311565
0.292205 0.292205
0.272555 0.272555
0.252637 0.252637
0.23247 0.23247
0.212073 0.212073
0.191467 0.191467
0.170671 0.170671
0.149708 0.149708
0.128596 0.128596
0.107358 0.107358
0.0860139 0.0860139
0.0645848 0.0645848
0.043092 0.043092
0.0215566 0.0215566
0 0
-6.2397e-13 -6.2397e-13
0.0196203 0.0196203
0.0392213 0.0392213
0.0587836 0.0587836
0.0782879 0.0782879
0.0977149 0.0977149
0.117045 0.117045
0.136261 0.136261
0.155341 0.155341
0.174268 0.174268
0.193024 0.193024
0.211588 0.211588
0.229944 0.229944
0.248074 0.248074
0.265958 0.265958
0.28358 0.28358
0.300922 0.300922
0.317966 0.317966
0.334698 0.334698
0.351099 0.351099
0.367153 0.367153
0.382845 0.382845
0.398159 0.398159
0.41308 0.41308
0.427594 0.427594
0.441686 0.441686
0.455341 0.455341
0.468548 0.468548
0.481292 0.481292
0.493561 0.493561
0.505343 0.505343
0.516626 0.516626
0.527399 0.527399
0.537652 0.537652
0.547374 0.547374
0.556556 0.556556
0.565189 0.565189
0.573264 0.573264
0.580774 0.580774
0.58771 0.58771
0.594066 0.594066
0.599836 0.599836
0.605014 0.605014
0.609594 0.609594
0.613574 0.613574
0.616947 0.616947
0.619712 0.619712
0.621866 0.621866
0.623405 0.623405
0.62433 0.62433
0.624638 0.624638
0.62433 0.62433
0.623405 0.623405
0.621866 0.621866
0.619712 0.619712
0.616947 0.616947
0.613574 0.613574
0.609594 0.609594
0.605014 0.605014
0.599836 0.599836
0.594066 0.594066
0.58771 0.58771
0.580774 0.580774
0.573264 0.573264
0.565189 0.565189
0.556556 0.556556
0.547374 0.547374
0.537652 0.537652
0.527399 0.527399
0.516626 0.516626
0.505343 0.505343
0.493561 0.493561
0.481292 0.481292
0.468548 0.468548
0.455341 0.455341
0.441686 0.441686
0.427594 0.427594
0.41308 0.41308
0.398159 0.398159
0.382845 0.382845
0.367153 0.367153
0.351099 0.351099
0.334698 0.334698
0.317966 0.317966
0.300922 0.300922
0.28358 0.28358
0.265958 0.265958
0.248074 0.248074
0.229944 0.229944
0.211588 0.211588
0.193024 0.193024
0.174268 0.174268
0.155341 0.155341
0.136261 0.136261
0.117045 0.117045
0.0977149 0.0977149
0.0782879 0.0782879
0.0587836 0.0587836
0.0392213 0.0392213
0.0196203 0.0196203
0 0
-2.29129e-13 -2.29129e-13
0.017858 0.017858
0.0356983 0.0356983
0.0535035 0.0535035
0.0712558 0.0712558
0.0889378 0.0889378
0.106532 0.106532
0.124021 0.124021
0.141388 0.141388
0.158615 0.158615
0.175686 0.175686
0.192583 0.192583
0.20929 0.20929
0.225791 0.225791
0.242069 0.242069
0.258108 0.258108
0.273892 0.273892
0.289406 0.289406
0.304634 0.304634
0.319562 0.319562
0.334174 0.334174
0.348456 0.348456
0.362395 0.362395
0.375976 0.375976
0.389186 0.389186
0.402012 0.402012
0.414441 0.414441
0.426461 0.426461
0.43806 0.43806
0.449227 0.449227
0.459951 0.459951
0.470221 0.470221
0.480026 0.480026
0.489358 0.489358
0.498207 0.498207
0.506565 0.506565
0.514422 0.514422
0.521772 0.521772
0.528606 0.528606
0.53492 0.53492
0.540705 0.540705
0.545956 0.545956
0.550669 0.550669
0.554839 0.554839
0.55846 0.55846
0.561531 0.561531
0.564048 0.564048
0.566007 0.566007
0.567409 0.567409
0.56825 0.56825
0.568531 0.568531
0.56825 0.56825
0.567409 0.567409
0.566007 0.566007
0.564048 0.564048
0.561531 0.561531
0.55846 0.55846
0.554839 0.554839
0.550669 0.550669
0.545956 0.545956
0.540705 0.540705
0.53492 0.53492
0.528606 0.528606
0.521772 0.521772
0.514422 0.514422
0.506565 0.506565
0.498207 0.498207
0.489358 0.489358
0.480026 0.480026
0.470221 0.470221
0.459951 0.459951
0.449227 0.449227
0.43806 0.43806
0.426461 0.426461
0.414441 0.414441
0.402012 0.402012
0.389186 0.389186
0.375976 0.375976
0.362395 0.362395
0.348456 0.348456
0.334174 0.334174
0.319562 0.319562
0.304634 0.304634
0.289406 0.289406
0.273892 0.273892
0.258108 0.258108
0.242069 0.242069
0.225791 0.225791
0.20929 0.20929
0.192583 0.192583
0.175686 0.175686
0.158615 0.158615
0.141388 0.141388
0.124021 0.124021
0.106532 0.106532
0.0889378 0.0889378
0.0712558 0.0712558
0.0535035 0.0535035
0.0356983 0.0356983
0.017858 0.017858
0 0
-2.80572e-13 -2.80572e-13
0.0162539 0.0162539
0.0324918 0.0324918
0.0486976 0.0486976
0.0648553 0.0648553
0.0809491 0.0809491
0.0969629 0.0969629
0.112881 0.112881
0.128688 0.128688
0.144368 0.144368
0.159905 0.159905
0.175284 0.175284
0.190491 0.190491
0.205509 0.205509
0.220325 0.220325
0.234923 0.234923
0.24929 0.24929
0.26341 0.26341
0.277271 0.277271
0.290858 0.290858
0.304157 0.304157
0.317157 0.317157
0.329844 0.329844
0.342205 0.342205
0.354228 0.354228
0.365902 0.365902
0.377214 0.377214
0.388155 0.388155
0.398712 0.398712
0.408876 0.408876
0.418637 0.418637
0.427984 0.427984
0.436909 0.436909
0.445402 0.445402
0.453457 0.453457
0.461063 0.461063
0.468215 0.468215
0.474904 0.474904
0.481125 0.481125
0.486871 0.486871
0.492137 0.492137
0.496917 0.496917
0.501206 0.501206
0.505001 0.505001
0.508298 0.508298
0.511092 0.511092
0.513383 0.513383
0.515167 0.515167
0.516442 0.516442
0.517208 0.517208
0.517463 0.517463
0.517208 0.517208
0.516442 0.516442
0.515167 0.515167
0.513383 0.513383
0.511092 0.511092
0.508298 0.508298
0.505001 0.505001
0.501206 0.501206
0.496917 0.496917
0.492137 0.492137
0.486871 0.486871
0.481125 0.481125
0.474904 0.474904
0.468215 0.468215
0.461063 0.461063
0.453457 0.453457
0.445402 0.445402
0.436909 0.436909
0.427984 0.427984
0.418637 0.418637
0.408876 0.408876
0.398712 0.398712
0.388155 0.388155
0.377214 0.377214
0.365902 0.365902
0.354228 0.354228
0.342205 0.342205
0.329844 0.329844
0.317157 0.317157
0.304157 0.304157
0.290858 0.290858
0.277271 0.277271
0.26341 0.26341
0.24929 0.24929
0.234923 0.234923
0.220325 0.220325
0.205509 0.205509
0.190491 0.190491
0.175284 0.175284
0.159905 0.159905
0.144368 0.144368
0.128688 0.128688
0.112881 0.112881
0.0969629 0.0969629
0.0809491 0.0809491
0.0648553 0.0648553
0.0486976 0.0486976
0.0324918 0.0324918
0.0162539 0.0162539
0 0
-2.13177e-13 -2.13177e-13
0.0147939 0.0147939
0.0295733 0.0295733
0.0443234 0.0443234
0.0590298 0.0590298
0.073678 0.073678
0.0882534 0.0882534
0.102742 0.102742
0.117129 0.117129
0.1314 0.1314
0.145542 0.145542
0.15954 0.15954
0.17338 0.17338
0.18705 0.18705
0.200535 0.200535
0.213822 0.213822
0.226898 0.226898
0.23975 0.23975
0.252365 0.252365
0.264732 0.264732
0.276837 0.276837
0.288669 0.288669
0.300216 0.300216
0.311467 0.311467
0.32241 0.32241
0.333035 0.333035
0.343332 0.343332
0.35329 0.35329
0.362899 0.362899
0.37215 0.37215
0.381033 0.381033
0.389541 0.389541
0.397664 0.397664
0.405395 0.405395
0.412726 0.412726
0.419649 0.419649
0.426158 0.426158
0.432247 0.432247
0.437909 0.437909
0.443139 0.443139
0.447931 0.447931
0.452282 0.452282
0.456186 0.456186
0.45964 0.45964
0.462641 0.462641
0.465184 0.465184
0.467269 0.467269
0.468893 0.468893
0.470054 0.470054
0.470751 0.470751
0.470983 0.470983
0.470751 0.470751
0.470054 0.470054
0.468893 0.468893
0.467269 0.467269
0.465184 0.465184
0.462641 0.462641
0.45964 0.45964
0.456186 0.456186
0.452282 0.452282
0.447931 0.447931
0.443139 0.443139
0.437909 0.437909
0.432247 0.432247
0.426158 0.426158
0.419649 0.419649
0.412726 0.412726
0.405395 0.405395
0.397664 0.397664
0.389541 0.389541
0.381033 0.381033
0.37215 0.37215
0.362899 0.362899
0.35329 0.35329
0.343332 0.343332
0.333035 0.333035
0.32241 0.32241
0.311467 0.311467
0.300216 0.300216
0.288669 0.288669
0.276837 0.276837
0.264732 0.264732
0.252365 0.252365
0.23975 0.23975
0.226898 0.226898
0.213822 0.213822
0.200535 0.200535
0.18705 0.18705
0.17338 0.17338
0.15954 0.15954
0.145542 0.145542
0.1314 0.1314
0.117129 0.117129
0.102742 0.102742
0.0882534 0.0882534
0.073678 0.073678
0.0590298 0.0590298
0.0443234 0.0443234
0.0295733 0.0295733
0.0147939 0.0147939
0 0
-2.71324e-13 -2.71324e-13
0.0134651 0.0134651
0.0269169 0.0269169
0.0403421 0.0403421
0.0537276 0.0537276
0.06706 0.06706
0.0803262 0.0803262
0.0935131 0.0935131
0.106608 0.106608
0.119597 0.119597
0.132469 0.132469
0.145209 0.145209
0.157807 0.157807
0.170248 0.170248
0.182522 0.182522
0.194616 0.194616
0.206517 0.206517
0.218215 0.218215
0.229697 0.229697
0.240953 0.240953
0.25197 0.25197
0.26274 0.26274
0.273249 0.273249
0.28349 0.28349
0.29345 0.29345
0.303121 0.303121
0.312493 0.312493
0.321556 0.321556
0.330302 0.330302
0.338722 0.338722
0.346807 0.346807
0.354551 0.354551
0.361945 0.361945
0.368981 0.368981
0.375653 0.375653
0.381955 0.381955
0.387879 0.387879
0.393421 0.393421
0.398574 0.398574
0.403335 0.403335
0.407697 0.407697
0.411656 0.411656
0.41521 0.41521
0.418354 0.418354
0.421085 0.421085
0.4234 0.4234
0.425297 0.425297
0.426775 0.426775
0.427832 0.427832
0.428466 0.428466
0.428678 0.428678
0.428466 0.428466
0.427832 0.427832
0.426775 0.426775
0.425297 0.425297
0.4234 0.4234
0.421085 0.421085
0.418354 0.418354
0.41521 0.41521
0.411656 0.411656
0.407697 0.407697
0.403335 0.403335
0.398574 0.398574
0.393421 0.393421
0.387879 0.387879
0.381955 0.381955
0.375653 0.375653
0.368981 0.368981
0.361945 0.361945
0.354551 0.354551
0.346807 0.346807
0.338722 0.338722
0.330302 0.330302
0.321556 0.321556
0.312493 0.312493
0.303121 0.303121
0.29345 0.29345
0.28349 0.28349
0.273249 0.273249
0.26274 0.26274
0.25197 0.25197
0.240953 0.240953
0.229697 0.229697
0.218215 0.218215
0.206517 0.206517
0.194616 0.194616
0.182522 0.182522
0.170248 0.170248
0.157807 0.157807
0.145209 0.145209
0.132469 0.132469
0.119597 0.119597
0.106608 0.106608
0.0935131 0.0935131
0.0803262 0.0803262
0.06706 0.06706
0.0537276 0.0537276
0.0403421 0.0403421
0.0269169 0.0269169
0.0134651 0.0134651
0 0
-3.37607e-13 -3.37607e-13
0.0122556 0.0122556
0.0244991 0.0244991
0.0367185 0.0367185
0.0489016 0.0489016
0.0610364 0.0610364
0.073111 0.073111
0.0851135 0.0851135
0.0970319 0.0970319
0.108855 0.108855
0.12057 0.12057
0.132166 0.132166
0.143632 0.143632
0.154956 0.154956
0.166127 0.166127
0.177135 0.177135
0.187967 0.187967
0.198614 0.198614
0.209065 0.209065
0.219309 0.219309
0.229338 0.229338
0.239139 0.239139
0.248705 0.248705
0.258026 0.258026
0.267091 0.267091
0.275894 0.275894
0.284423 0.284423
0.292673 0.292673
0.300633 0.300633
0.308297 0.308297
0.315656 0.315656
0.322704 0.322704
0.329433 0.329433
0.335838 0.335838
0.341911 0.341911
0.347646 0.347646
0.353038 0.353038
0.358082 0.358082
0.362773 0.362773
0.367106 0.367106
0.371076 0.371076
0.37468 0.37468
0.377914 0.377914
0.380776 0.380776
0.383261 0.383261
0.385369 0.385369
0.387096 0.387096
0.388441 0.388441
0.389402 0.389402
0.38998 0.38998
0.390172 0.390172
0.38998 0.38998
0.389402 0.389402
0.388441 0.388441
0.387096 0.387096
0.385369 0.385369
0.383261 0.383261
0.380776 0.380776
0.377914 0.377914
0.37468 0.37468
0.371076 0.371076
0.367106 0.367106
0.362773 0.362773
0.358082 0.358082
0.353038 0.353038
0.347646 0.347646
0.341911 0.341911
0.335838 0.335838
0.329433 0.329433
0.322704 0.322704
0.315656 0.315656
0.308297 0.308297
0.300633 0.300633
0.292673 0.292673
0.284423 0.284423
0.275894 0.275894
0.267091 0.267091
0.258026 0.258026
0.248705 0.248705
0.239139 0.239139
0.229338 0.229338
0.219309 0.219309
0.209065 0.209065
0.198614 0.198614
0.187967 0.187967
0.177135 0.177135
0.166127 0.166127
0.154956 0.154956
0.143632 0.143632
0.132166 0.132166
0.12057 0.12057
0.108855 0.108855
0.0970319 0.0970319
0.0851135 0.0851135
0.073111 0.073111
0.0610364 0.0610364
0.0489016 0.0489016
0.0367185 0.0367185
0.0244991 0.0244991
0.0122556 0.0122556
0 0
-3.22512e-13 -3.22512e-13
0.0111548 0.0111548
0.0222985 0.0222985
0.0334203 0.0334203
0.0445091 0.0445091
0.0555539 0.0555539
0.0665439 0.0665439
0.0774683 0.0774683
0.0883162 0.0883162
0.0990769 0.0990769
0.10974 0.10974
0.120295 0.120295
0.13073 0.13073
0.141037 0.141037
0.151205 0.151205
0.161224 0.161224
0.171083 0.171083
0.180774 0.180774
0.190286 0.190286
0.19961 0.19961
0.208738 0.208738
0.217659 0.217659
0.226366 0.226366
0.234849 0.234849
0.2431 0.2431
0.251112 0.251112
0.258876 0.258876
0.266384 0.266384
0.273629 0.273629
0.280604 0.280604
0.287303 0.287303
0.293718 0.293718
0.299843 0.299843
0.305672 0.305672
0.311199 0.311199
0.316419 0.316419
0.321327 0.321327
0.325918 0.325918
0.330188 0.330188
0.334131 0.334131
0.337745 0.337745
0.341025 0.341025
0.343969 0.343969
0.346573 0.346573
0.348835 0.348835
0.350754 0.350754
0.352325 0.352325
0.35355 0.35355
0.354425 0.354425
0.35495 0.35495
0.355126 0.355126
0.35495 0.35495
0.354425 0.354425
0.35355 0.35355
0.352325 0.352325
0.350754 0.350754
0.348835 0.348835
0.346573 0.346573
0.343969 0.343969
0.341025 0.341025
0.337745 0.337745
0.334131 0.334131
0.330188 0.330188
0.325918 0.325918
0.321327 0.321327
0.316419 0.316419
0.311199 0.311199
0.305672 0.305672
0.299843 0.299843
0.293718 0.293718
0.287303 0.287303
0.280604 0.280604
0.273629 0.273629
0.266384 0.266384
0.258876 0.258876
0.251112 0.251112
0.2431 0.2431
0.234849 0.234849
0.226366 0.226366
0.217659 0.217659
0.208738 0.208738
0.19961 0.19961
0.190286 0.190286
0.180774 0.180774
0.171083 0.171083
0.161224 0.161224
0.151205 0.151205
0.141037 0.141037
0.13073 0.13073
0.120295 0.120295
0.10974 0.10974
0.0990769 0.0990769
0.0883162 0.0883162
0.0774683 0.0774683
0.0665439 0.0665439
0.0555539 0.0555539
0.0445091 0.0445091
0.0334203 0.0334203
0.0222985 0.0222985
0.0111548 0.0111548
0 0
-5.99591e-14 -5.99591e-14
0.0101528 0.0101528
0.0202956 0.0202956
0.0304184 0.0304184
0.0405111 0.0405111
0.0505639 0.0505639
0.0605667 0.0605667
0.0705098 0.0705098
0.0803833 0.0803833
0.0901775 0.0901775
0.0998827 0.0998827
0.109489 0.109489
0.118988 0.118988
0.128369 0.128369
0.137623 0.137623
0.146742 0.146742
0.155716 0.155716
0.164536 0.164536
0.173194 0.173194
0.181681 0.181681
0.189988 0.189988
0.198108 0.198108
0.206033 0.206033
0.213754 0.213754
0.221264 0.221264
0.228556 0.228556
0.235622 0.235622
0.242456 0.242456
0.249051 0.249051
0.2554 0.2554
0.261496 0.261496
0.267335 0.267335
0.27291 0.27291
0.278215 0.278215
0.283246 0.283246
0.287997 0.287997
0.292465 0.292465
0.296643 0.296643
0.300529 0.300529
0.304118 0.304118
0.307407 0.307407
0.310393 0.310393
0.313072 0.313072
0.315443 0.315443
0.317502 0.317502
0.319248 0.319248
0.320678 0.320678
0.321793 0.321793
0.322589 0.322589
0.323068 0.323068
0.323227 0.323227
0.323068 0.323068
0.322589 0.322589
0.321793 0.321793
0.320678 0.320678
0.319248 0.319248
0.317502 0.317502
0.315443 0.315443
0.313072 0.313072
0.310393 0.310393
0.307407 0.307407
0.304118 0.304118
0.300529 0.300529
0.296643 0.296643
0.292465 0.292465
0.287997 0.287997
0.283246 0.283246
0.278215 0.278215
0.27291 0.27291
0.267335 0.267335
0.261496 0.261496
0.2554 0.2554
0.249051 0.249051
0.242456 0.242456
0.235622 0.235622
0.228556 0.228556
0.221264 0.221264
0.213754 0.213754
0.206033 0.206033
0.198108 0.198108
0.189988 0.189988
0.181681 0.181681
0.173194 0.173194
0.164536 0.164536
0.155716 0.155716
0.146742 0.146742
0.137623 0.137623
0.128369 0.128369
0.118988 0.118988
0.109489 0.109489
0.0998827 0.0998827
0.0901775 0.0901775
0.0803833 0.0803833
0.0705098 0.0705098
0.0605667 0.0605667
0.0505639 0.0505639
0.0405111 0.0405111
0.0304184 0.0304184
0.0202956 0.0202956
0.0101528 0.0101528
0 0
-7.24185e-14 -7.24185e-14
0.00924085 0.00924085
0.0184726 0.0184726
0.0276861 0.0276861
0.0368723 0.0368723
0.046022 0.046022
0.0551264 0.0551264
0.0641764 0.0641764
0.073163 0.073163
0.0820774 0.0820774
0.0909109 0.0909109
0.0996546 0.0996546
0.1083 0.1083
0.116838 0.116838
0.125262 0.125262
0.133561 0.133561
0.141729 0.141729
0.149757 0.149757
0.157637 0.157637
0.165361 0.165361
0.172923 0.172923
0.180313 0.180313
0.187526 0.187526
0.194554 0.194554
0.201389 0.201389
0.208026 0.208026
0.214458 0.214458
0.220678 0.220678
0.22668 0.22668
0.232459 0.232459
0.238008 0.238008
0.243322 0.243322
0.248396 0.248396
0.253225 0.253225
0.257804 0.257804
0.262129 0.262129
0.266194 0.266194
0.269998 0.269998
0.273534 0.273534
0.276801 0.276801
0.279795 0.279795
0.282512 0.282512
0.284951 0.284951
0.287109 0.287109
0.288983 0.288983
0.290572 0.290572
0.291874 0.291874
0.292888 0.292888
0.293613 0.293613
0.294049 0.294049
0.294194 0.294194
0.294049 0.294049
0.293613 0.293613
0.292888 0.292888
0.291874 0.291874
0.290572 0.290572
0.288983 0.288983
0.287109 0.287109
0.284951 0.284951
0.282512 0.282512
0.279795 0.279795
0.276801 0.276801
0.273534 0.273534
0.269998 0.269998
0.266194 0.266194
0.262129 0.262129
0.257804 0.257804
0.253225 0.253225
0.248396 0.248396
0.243322 0.243322
0.238008 0.238008
0.232459 0.232459
0.22668 0.22668
0.220678 0.220678
0.214458 0.214458
0.208026 0.208026
0.201389 0.201389
0.194554 0.194554
0.187526 0.187526
0.180313 0.180313
0.172923 0.172923
0.165361 0.165361
0.157637 0.157637
0.149757 0.149757
0.141729 0.141729
0.133561 0.133561
0.125262 0.125262
0.116838 0.116838
0.1083 0.1083
0.0996546 0.0996546
0.0909109 0.0909109
0.0820774 0.0820774
0.073163 0.073163
0.0641764 0.0641764
0.0551264 0.0551264
0.046022 0.046022
0.0368723 0.0368723
0.0276861 0.0276861
0.0184726 0.0184726
0.00924085 0.00924085
0 0
-2.42718e-13 -2.42718e-13
0.0084108 0.0084108
0.0168133 0.0168133
0.0251992 0.0251992
0.0335603 0.0335603
0.0418882 0.0418882
0.0501748 0.0501748
0.0584118 0.0584118
0.0665913 0.0665913
0.074705 0.074705
0.0827449 0.0827449
0.0907033 0.0907033
0.0985721 0.0985721
0.106344 0.106344
0.11401 0.11401
0.121564 0.121564
0.128998 0.128998
0.136305 0.136305
0.143477 0.143477
0.150508 0.150508
0.15739 0.15739
0.164117 0.164117
0.170682 0.170682
0.177078 0.177078
0.1833 0.1833
0.189341 0.189341
0.195195 0.195195
0.200856 0.200856
0.206319 0.206319
0.211578 0.211578
0.216629 0.216629
0.221466 0.221466
0.226084 0.226084
0.230479 0.230479
0.234647 0.234647
0.238583 0.238583
0.242284 0.242284
0.245746 0.245746
0.248965 0.248965
0.251938 0.251938
0.254663 0.254663
0.257136 0.257136
0.259356 0.259356
0.26132 0.26132
0.263025 0.263025
0.264472 0.264472
0.265657 0.265657
0.26658 0.26658
0.26724 0.26724
0.267636 0.267636
0.267768 0.267768
0.267636 0.267636
0.26724 0.26724
0.26658 0.26658
0.265657 0.265657
0.264472 0.264472
0.263025 0.263025
0.26132 0.26132
0.259356 0.259356
0.257136 0.257136
0.254663 0.254663
0.251938 0.251938
0.248965 0.248965
0.245746 0.245746
0.242284 0.242284
0.238583 0.238583
0.234647 0.234647
0.230479 0.230479
0.226084 0.226084
0.221466 0.221466
0.216629 0.216629
0.211578 0.211578
0.206319 0.206319
0.200856 0.200856
0.195195 0.195195
0.189341 0.189341
0.1833 0.1833
0.177078 0.177078
0.170682 0.170682
0.164117 0.164117
0.15739 0.15739
0.150508 0.150508
0.143477 0.143477
0.136305 0.136305
0.128998 0.128998
0.121564 0.121564
0.11401 0.11401
0.106344 0.106344
0.0985721 0.0985721
0.0907033 0.0907033
0.0827449 0.0827449
0.074705 0.074705
0.0665913 0.0665913
0.0584118 0.0584118
0.0501748 0.0501748
0.0418882 0.0418882
0.0335603 0.0335603
0.0251992 0.0251992
0.0168133 0.0168133
0.0084108 0.0084108
0 0
-7.61933e-14 -7.61933e-14
0.00765532 0.00765532
0.0153031 0.0153031
0.0229357 0.0229357
0.0305458 0.0305458
0.0381256 0.0381256
0.0456679 0.0456679
0.0531651 0.0531651
0.0606098 0.0606098
0.0679947 0.0679947
0.0753125 0.0753125
0.082556 0.082556
0.089718 0.089718
0.0967914 0.0967914
0.103769 0.103769
0.110645 0.110645
0.117411 0.117411
0.124062 0.124062
0.13059 0.13059
0.136989 0.136989
0.143253 0.143253
0.149375 0.149375
0.155351 0.155351
0.161173 0.161173
0.166835 0.166835
0.172334 0.172334
0.177662 0.177662
0.182814 0.182814
0.187787 0.187787
0.192574 0.192574
0.197171 0.197171
0.201573 0.201573
0.205777 0.205777
0.209777 0.209777
0.21357 0.21357
0.217153 0.217153
0.220521 0.220521
0.223672 0.223672
0.226602 0.226602
0.229308 0.229308
0.231788 0.231788
0.234039 0.234039
0.23606 0.23606
0.237847 0.237847
0.239399 0.239399
0.240716 0.240716
0.241795 0.241795
0.242635 0.242635
0.243235 0.243235
0.243596 0.243596
0.243716 0.243716
0.243596 0.243596
0.243235 0.243235
0.242635 0.242635
0.241795 0.241795
0.240716 0.240716
0.239399 0.239399
0.237847 0.237847
0.23606 0.23606
0.234039 0.234039
0.231788 0.231788
0.229308 0.229308
0.226602 0.226602
0.223672 0.223672
0.220521 0.220521
0.217153 0.217153
0.21357 0.21357
0.209777 0.209777
0.205777 0.205777
0.201573 0.201573
0.197171 0.197171
0.192574 0.192574
0.187787 0.187787
0.182814 0.182814
0.177662 0.177662
0.172334 0.172334
0.166835 0.166835
0.161173 0.161173
0.155351 0.155351
0.149375 0.149375
0.143253 0.143253
0.136989 0.136989
0.13059 0.13059
0.124062 0.124062
0.117411 0.117411
0.110645 0.110645
0.103769 0.103769
0.0967914 0.0967914
0.089718 0.089718
0.082556 0.082556
0.0753125 0.0753125
0.0679947 0.0679947
0.0606098 0.0606098
0.0531651 0.0531651
0.0456679 0.0456679
0.0381256 0.0381256
0.0305458 0.0305458
0.0229357 0.0229357
0.0153031 0.0153031
0.00765532 0.00765532
0 0
1.72218e-14 1.72218e-14
0.00696769 0.00696769
0.0139285 0.0139285
0.0208756 0.0208756
0.027802 0.027802
0.0347011 0.0347011
0.0415658 0.0415658
0.0483896 0.0483896
0.0551656 0.0551656
0.0618872 0.0618872
0.0685477 0.0685477
0.0751405 0.0751405
0.0816592 0.0816592
0.0880973 0.0880973
0.0944485 0.0944485
0.100706 0.100706
0.106865 0.106865
0.112918 0.112918
0.11886 0.11886
0.124684 0.124684
0.130385 0.130385
0.135958 0.135958
0.141397 0.141397
0.146695 0.146695
0.15185 0.15185
0.156854 0.156854
0.161703 0.161703
0.166393 0.166393
0.170919 0.170919
0.175276 0.175276
0.17946 0.17946
0.183467 0.183467
0.187293 0.187293
0.190934 0.190934
0.194387 0.194387
0.197647 0.197647
0.200713 0.200713
0.203581 0.203581
0.206248 0.206248