# vtk DataFile Version 3.0
Heat Equation 1D
ASCII
DATASET STRUCTURED_POINTS
DIMENSIONS 2 101 201
ORIGIN 0 0 0
SPACING 1 1 1
POINT_DATA 40602
SCALARS solution float
LOOKUP_TABLE default
0 0
0.0314108 0.0314108
0.0627905 0.0627905
0.0941083 0.0941083
0.125333 0.125333
0.156434 0.156434
0.187381 0.187381
0.218143 0.218143
0.24869 0.24869
0.278991 0.278991
0.309017 0.309017
0.338738 0.338738
0.368125 0.368125
0.397148 0.397148
0.425779 0.425779
0.45399 0.45399
0.481754 0.481754
0.509041 0.509041
0.535827 0.535827
0.562083 0.562083
0.587785 0.587785
0.612907 0.612907
0.637424 0.637424
0.661312 0.661312
0.684547 0.684547
0.707107 0.707107
0.728969 0.728969
0.750111 0.750111
0.770513 0.770513
0.790155 0.790155
0.809017 0.809017
0.827081 0.827081
0.844328 0.844328
0.860742 0.860742
0.876307 0.876307
0.891007 0.891007
0.904827 0.904827
0.917755 0.917755
0.929776 0.929776
0.940881 0.940881
0.951057 0.951057
0.960294 0.960294
0.968583 0.968583
0.975917 0.975917
0.982287 0.982287
0.987688 0.987688
0.992115 0.992115
0.995562 0.995562
0.998027 0.998027
0.999507 0.999507
1 1
0.999507 0.999507
0.998027 0.998027
0.995562 0.995562
0.992115 0.992115
0.987688 0.987688
0.982287 0.982287
0.975917 0.975917
0.968583 0.968583
0.960294 0.960294
0.951057 0.951057
0.940881 0.940881
0.929776 0.929776
0.917755 0.917755
0.904827 0.904827
0.891007 0.891007
0.876307 0.876307
0.860742 0.860742
0.844328 0.844328
0.827081 0.827081
0.809017 0.809017
0.790155 0.790155
0.770513 0.770513
0.750111 0.750111
0.728969 0.728969
0.707107 0.707107
0.684547 0.684547
0.661312 0.661312
0.637424 0.637424
0.612907 0.612907
0.587785 0.587785
0.562083 0.562083
0.535827 0.535827
0.509041 0.509041
0.481754 0.481754
0.45399 0.45399
0.425779 0.425779
0.397148 0.397148
0.368125 0.368125
0.338738 0.338738
0.309017 0.309017
0.278991 0.278991
0.24869 0.24869
0.218143 0.218143
0.187381 0.187381
0.156434 0.156434
0.125333 0.125333
0.0941083 0.0941083
0.0627905 0.0627905
0.0314108 0.0314108
1.22465e-16 1.22465e-16
8.54357e-14 8.54357e-14
0.0311038 0.0311038
0.0621769 0.0621769
0.0931887 0.0931887
0.124108 0.124108
0.154906 0.154906
0.18555 0.18555
0.216011 0.216011
0.24626 0.24626
0.276265 0.276265
0.305997 0.305997
0.335428 0.335428
0.364527 0.364527
0.393267 0.393267
0.421618 0.421618
0.449554 0.449554
0.477046 0.477046
0.504067 0.504067
0.530591 0.530591
0.556591 0.556591
0.582041 0.582041
0.606918 0.606918
0.631195 0.631195
0.654849 0.654849
0.677857 0.677857
0.700197 0.700197
0.721845 0.721845
0.742781 0.742781
0.762984 0.762984
0.782433 0.782433
0.801111 0.801111
0.818998 0.818998
0.836077 0.836077
0.852331 0.852331
0.867743 0.867743
0.882299 0.882299
0.895985 0.895985
0.908786 0.908786
0.92069 0.92069
0.931686 0.931686
0.941762 0.941762
0.950909 0.950909
0.959118 0.959118
0.96638 0.96638
0.972688 0.972688
0.978036 0.978036
0.982419 0.982419
0.985833 0.985833
0.988274 0.988274
0.989739 0.989739
0.990228 0.990228
0.989739 0.989739
0.988274 0.988274
0.985833 0.985833
0.982419 0.982419
0.978036 0.978036
0.972688 0.972688
0.96638 0.96638
0.959118 0.959118
0.950909 0.950909
0.941762 0.941762
0.931686 0.931686
0.92069 0.92069
0.908786 0.908786
0.895985 0.895985
0.882299 0.882299
0.867743 0.867743
0.852331 0.852331
0.836077 0.836077
0.818998 0.818998
0.801111 0.801111
0.782433 0.782433
0.762984 0.762984
0.742781 0.742781
0.721845 0.721845
0.700197 0.700197
0.677857 0.677857
0.654849 0.654849
0.631195 0.631195
0.606918 0.606918
0.582041 0.582041
0.556591 0.556591
0.530591 0.530591
0.504067 0.504067
0.477046 0.477046
0.449554 0.449554
0.421618 0.421618
0.393267 0.393267
0.364527 0.364527
0.335428 0.335428
0.305997 0.305997
0.276265 0.276265
0.24626 0.24626
0.216011 0.216011
0.18555 0.18555
0.154906 0.154906
0.124108 0.124108
0.0931887 0.0931887
0.0621769 0.0621769
0.0311038 0.0311038
0 0
1.11456e-13 1.11456e-13
0.0307998 0.0307998
0.0615693 0.0615693
0.092278 0.092278
0.122896 0.122896
0.153392 0.153392
0.183737 0.183737
0.213901 0.213901
0.243853 0.243853
0.273565 0.273565
0.303007 0.303007
0.33215 0.33215
0.360965 0.360965
0.389424 0.389424
0.417498 0.417498
0.445161 0.445161
0.472384 0.472384
0.499141 0.499141
0.525405 0.525405
0.551151 0.551151
0.576353 0.576353
0.600986 0.600986
0.625027 0.625027
0.64845 0.64845
0.671233 0.671233
0.693354 0.693354
0.714791 0.714791
0.735522 0.735522
0.755527 0.755527
0.774787 0.774787
0.793282 0.793282
0.810995 0.810995
0.827906 0.827906
0.844001 0.844001
0.859263 0.859263
0.873677 0.873677
0.887229 0.887229
0.899905 0.899905
0.911693 0.911693
0.922581 0.922581
0.932559 0.932559
0.941617 0.941617
0.949745 0.949745
0.956936 0.956936
0.963183 0.963183
0.968479 0.968479
0.972819 0.972819
0.976199 0.976199
0.978616 0.978616
0.980067 0.980067
0.980551 0.980551
0.980067 0.980067
0.978616 0.978616
0.976199 0.976199
0.972819 0.972819
0.968479 0.968479
0.963183 0.963183
0.956936 0.956936
0.949745 0.949745
0.941617 0.941617
0.932559 0.932559
0.922581 0.922581
0.911693 0.911693
0.899905 0.899905
0.887229 0.887229
0.873677 0.873677
0.859263 0.859263
0.844001 0.844001
0.827906 0.827906
0.810995 0.810995
0.793282 0.793282
0.774787 0.774787
0.755527 0.755527
0.735522 0.735522
0.714791 0.714791
0.693354 0.693354
0.671233 0.671233
0.64845 0.64845
0.625027 0.625027
0.600986 0.600986
0.576353 0.576353
0.551151 0.551151
0.525405 0.525405
0.499141 0.499141
0.472384 0.472384
0.445161 0.445161
0.417498 0.417498
0.389424 0.389424
0.360965 0.360965
0.33215 0.33215
0.303007 0.303007
0.273565 0.273565
0.243853 0.243853
0.213901 0.213901
0.183737 0.183737
0.153392 0.153392
0.122896 0.122896
0.092278 0.092278
0.0615693 0.0615693
0.0307998 0.0307998
0 0
5.84635e-14 5.84635e-14
0.0304989 0.0304989
0.0609676 0.0609676
0.0913762 0.0913762
0.121695 0.121695
0.151893 0.151893
0.181941 0.181941
0.21181 0.21181
0.24147 0.24147
0.270892 0.270892
0.300046 0.300046
0.328904 0.328904
0.357437 0.357437
0.385618 0.385618
0.413418 0.413418
0.44081 0.44081
0.467768 0.467768
0.494263 0.494263
0.520271 0.520271
0.545765 0.545765
0.570721 0.570721
0.595113 0.595113
0.618919 0.618919
0.642113 0.642113
0.664674 0.664674
0.686578 0.686578
0.707806 0.707806
0.728334 0.728334
0.748144 0.748144
0.767216 0.767216
0.78553 0.78553
0.803069 0.803069
0.819816 0.819816
0.835753 0.835753
0.850866 0.850866
0.865139 0.865139
0.878559 0.878559
0.891111 0.891111
0.902784 0.902784
0.913566 0.913566
0.923446 0.923446
0.932415 0.932415
0.940464 0.940464
0.947584 0.947584
0.95377 0.95377
0.959014 0.959014
0.963312 0.963312
0.966659 0.966659
0.969053 0.969053
0.970489 0.970489
0.970969 0.970969
0.970489 0.970489
0.969053 0.969053
0.966659 0.966659
0.963312 0.963312
0.959014 0.959014
0.95377 0.95377
0.947584 0.947584
0.940464 0.940464
0.932415 0.932415
0.923446 0.923446
0.913566 0.913566
0.902784 0.902784
0.891111 0.891111
0.878559 0.878559
0.865139 0.865139
0.850866 0.850866
0.835753 0.835753
0.819816 0.819816
0.803069 0.803069
0.78553 0.78553
0.767216 0.767216
0.748144 0.748144
0.728334 0.728334
0.707806 0.707806
0.686578 0.686578
0.664674 0.664674
0.642113 0.642113
0.618919 0.618919
0.595113 0.595113
0.570721 0.570721
0.545765 0.545765
0.520271 0.520271
0.494263 0.494263
0.467768 0.467768
0.44081 0.44081
0.413418 0.413418
0.385618 0.385618
0.357437 0.357437
0.328904 0.328904
0.300046 0.300046
0.270892 0.270892
0.24147 0.24147
0.21181 0.21181
0.181941 0.181941
0.151893 0.151893
0.121695 0.121695
0.0913762 0.0913762
0.0609676 0.0609676
0.0304989 0.0304989
0 0
8.47535e-14 8.47535e-14
0.0302008 0.0302008
0.0603718 0.0603718
0.0904832 0.0904832
0.120505 0.120505
0.150409 0.150409
0.180163 0.180163
0.20974 0.20974
0.23911 0.23911
0.268244 0.268244
0.297114 0.297114
0.32569 0.32569
0.353944 0.353944
0.38185 0.38185
0.409378 0.409378
0.436503 0.436503
0.463196 0.463196
0.489433 0.489433
0.515187 0.515187
0.540432 0.540432
0.565144 0.565144
0.589298 0.589298
0.61287 0.61287
0.635838 0.635838
0.658178 0.658178
0.679869 0.679869
0.700889 0.700889
0.721217 0.721217
0.740833 0.740833
0.759718 0.759718
0.777854 0.777854
0.795221 0.795221
0.811804 0.811804
0.827586 0.827586
0.842551 0.842551
0.856685 0.856685
0.869973 0.869973
0.882403 0.882403
0.893961 0.893961
0.904638 0.904638
0.914422 0.914422
0.923303 0.923303
0.931273 0.931273
0.938324 0.938324
0.944449 0.944449
0.949642 0.949642
0.953898 0.953898
0.957213 0.957213
0.959583 0.959583
0.961005 0.961005
0.96148 0.96148
0.961005 0.961005
0.959583 0.959583
0.957213 0.957213
0.953898 0.953898
0.949642 0.949642
0.944449 0.944449
0.938324 0.938324
0.931273 0.931273
0.923303 0.923303
0.914422 0.914422
0.904638 0.904638
0.893961 0.893961
0.882403 0.882403
0.869973 0.869973
0.856685 0.856685
0.842551 0.842551
0.827586 0.827586
0.811804 0.811804
0.795221 0.795221
0.777854 0.777854
0.759718 0.759718
0.740833 0.740833
0.721217 0.721217
0.700889 0.700889
0.679869 0.679869
0.658178 0.658178
0.635838 0.635838
0.61287 0.61287
0.589298 0.589298
0.565144 0.565144
0.540432 0.540432
0.515187 0.515187
0.489433 0.489433
0.463196 0.463196
0.436503 0.436503
0.409378 0.409378
0.38185 0.38185
0.353944 0.353944
0.32569 0.32569
0.297114 0.297114
0.268244 0.268244
0.23911 0.23911
0.20974 0.20974
0.180163 0.180163
0.150409 0.150409
0.120505 0.120505
0.0904832 0.0904832
0.0603718 0.0603718
0.0302008 0.0302008
0 0
8.94431e-14 8.94431e-14
0.0299057 0.0299057
0.0597818 0.0597818
0.089599 0.089599
0.119328 0.119328
0.148939 0.148939
0.178403 0.178403
0.207691 0.207691
0.236774 0.236774
0.265623 0.265623
0.29421 0.29421
0.322507 0.322507
0.350485 0.350485
0.378118 0.378118
0.405378 0.405378
0.432237 0.432237
0.45867 0.45867
0.48465 0.48465
0.510152 0.510152
0.535151 0.535151
0.559621 0.559621
0.583539 0.583539
0.606881 0.606881
0.629624 0.629624
0.651746 0.651746
0.673225 0.673225
0.694039 0.694039
0.714169 0.714169
0.733593 0.733593
0.752294 0.752294
0.770252 0.770252
0.78745 0.78745
0.803871 0.803871
0.819499 0.819499
0.834318 0.834318
0.848313 0.848313
0.861471 0.861471
0.873779 0.873779
0.885225 0.885225
0.895797 0.895797
0.905486 0.905486
0.91428 0.91428
0.922172 0.922172
0.929155 0.929155
0.93522 0.93522
0.940362 0.940362
0.944576 0.944576
0.947859 0.947859
0.950205 0.950205
0.951614 0.951614
0.952084 0.952084
0.951614 0.951614
0.950205 0.950205
0.947859 0.947859
0.944576 0.944576
0.940362 0.940362
0.93522 0.93522
0.929155 0.929155
0.922172 0.922172
0.91428 0.91428
0.905486 0.905486
0.895797 0.895797
0.885225 0.885225
0.873779 0.873779
0.861471 0.861471
0.848313 0.848313
0.834318 0.834318
0.819499 0.819499
0.803871 0.803871
0.78745 0.78745
0.770252 0.770252
0.752294 0.752294
0.733593 0.733593
0.714169 0.714169
0.694039 0.694039
0.673225 0.673225
0.651746 0.651746
0.629624 0.629624
0.606881 0.606881
0.583539 0.583539
0.559621 0.559621
0.535151 0.535151
0.510152 0.510152
0.48465 0.48465
0.45867 0.45867
0.432237 0.432237
0.405378 0.405378
0.378118 0.378118
0.350485 0.350485
0.322507 0.322507
0.29421 0.29421
0.265623 0.265623
0.236774 0.236774
0.207691 0.207691
0.178403 0.178403
0.148939 0.148939
0.119328 0.119328
0.089599 0.089599
0.0597818 0.0597818
0.0299057 0.0299057
0 0
7.40243e-14 7.40243e-14
0.0296134 0.0296134
0.0591976 0.0591976
0.0887234 0.0887234
0.118162 0.118162
0.147483 0.147483
0.176659 0.176659
0.205661 0.205661
0.23446 0.23446
0.263027 0.263027
0.291335 0.291335
0.319355 0.319355
0.34706 0.34706
0.374423 0.374423
0.401416 0.401416
0.428013 0.428013
0.454188 0.454188
0.479914 0.479914
0.505167 0.505167
0.529921 0.529921
0.554152 0.554152
0.577836 0.577836
0.60095 0.60095
0.623471 0.623471
0.645377 0.645377
0.666646 0.666646
0.687257 0.687257
0.70719 0.70719
0.726424 0.726424
0.744942 0.744942
0.762725 0.762725
0.779755 0.779755
0.796015 0.796015
0.81149 0.81149
0.826164 0.826164
0.840023 0.840023
0.853053 0.853053
0.865241 0.865241
0.876575 0.876575
0.887043 0.887043
0.896637 0.896637
0.905346 0.905346
0.913161 0.913161
0.920075 0.920075
0.926081 0.926081
0.931173 0.931173
0.935346 0.935346
0.938596 0.938596
0.940919 0.940919
0.942315 0.942315
0.94278 0.94278
0.942315 0.942315
0.940919 0.940919
0.938596 0.938596
0.935346 0.935346
0.931173 0.931173
0.926081 0.926081
0.920075 0.920075
0.913161 0.913161
0.905346 0.905346
0.896637 0.896637
0.887043 0.887043
0.876575 0.876575
0.865241 0.865241
0.853053 0.853053
0.840023 0.840023
0.826164 0.826164
0.81149 0.81149
0.796015 0.796015
0.779755 0.779755
0.762725 0.762725
0.744942 0.744942
0.726424 0.726424
0.70719 0.70719
0.687257 0.687257
0.666646 0.666646
0.645377 0.645377
0.623471 0.623471
0.60095 0.60095
0.577836 0.577836
0.554152 0.554152
0.529921 0.529921
0.505167 0.505167
0.479914 0.479914
0.454188 0.454188
0.428013 0.428013
0.401416 0.401416
0.374423 0.374423
0.34706 0.34706
0.319355 0.319355
0.291335 0.291335
0.263027 0.263027
0.23446 0.23446
0.205661 0.205661
0.176659 0.176659
0.147483 0.147483
0.118162 0.118162
0.0887234 0.0887234
0.0591976 0.0591976
0.0296134 0.0296134
0 0
1.29532e-14 1.29532e-14
0.029324 0.029324
0.0586191 0.0586191
0.0878564 0.0878564
0.117007 0.117007
0.146042 0.146042
0.174933 0.174933
0.203651 0.203651
0.232169 0.232169
0.260457 0.260457
0.288488 0.288488
0.316234 0.316234
0.343669 0.343669
0.370764 0.370764
0.397493 0.397493
0.42383 0.42383
0.449749 0.449749
0.475224 0.475224
0.50023 0.50023
0.524742 0.524742
0.548737 0.548737
0.57219 0.57219
0.595078 0.595078
0.617379 0.617379
0.63907 0.63907
0.660131 0.660131
0.680541 0.680541
0.700279 0.700279
0.719325 0.719325
0.737662 0.737662
0.755271 0.755271
0.772135 0.772135
0.788236 0.788236
0.80356 0.80356
0.818091 0.818091
0.831814 0.831814
0.844716 0.844716
0.856785 0.856785
0.868008 0.868008
0.878375 0.878375
0.887875 0.887875
0.896498 0.896498
0.904237 0.904237
0.911083 0.911083
0.917031 0.917031
0.922073 0.922073
0.926205 0.926205
0.929423 0.929423
0.931724 0.931724
0.933106 0.933106
0.933567 0.933567
0.933106 0.933106
0.931724 0.931724
0.929423 0.929423
0.926205 0.926205
0.922073 0.922073
0.917031 0.917031
0.911083 0.911083
0.904237 0.904237
0.896498 0.896498
0.887875 0.887875
0.878375 0.878375
0.868008 0.868008
0.856785 0.856785
0.844716 0.844716
0.831814 0.831814
0.818091 0.818091
0.80356 0.80356
0.788236 0.788236
0.772135 0.772135
0.755271 0.755271
0.737662 0.737662
0.719325 0.719325
0.700279 0.700279
0.680541 0.680541
0.660131 0.660131
0.63907 0.63907
0.617379 0.617379
0.595078 0.595078
0.57219 0.57219
0.548737 0.548737
0.524742 0.524742
0.50023 0.50023
0.475224 0.475224
0.449749 0.449749
0.42383 0.42383
0.397493 0.397493
0.370764 0.370764
0.343669 0.343669
0.316234 0.316234
0.288488 0.288488
0.260457 0.260457
0.232169 0.232169
0.203651 0.203651
0.174933 0.174933
0.146042 0.146042
0.117007 0.117007
0.0878564 0.0878564
0.0586191 0.0586191
0.029324 0.029324
0 0
7.66391e-14 7.66391e-14
0.0290375 0.0290375
0.0580463 0.0580463
0.0869978 0.0869978
0.115863 0.115863
0.144615 0.144615
0.173223 0.173223
0.201661 0.201661
0.2299 0.2299
0.257912 0.257912
0.285669 0.285669
0.313144 0.313144
0.34031 0.34031
0.367141 0.367141
0.393609 0.393609
0.419689 0.419689
0.445354 0.445354
0.47058 0.47058
0.495342 0.495342
0.519614 0.519614
0.543374 0.543374
0.566598 0.566598
0.589262 0.589262
0.611345 0.611345
0.632825 0.632825
0.65368 0.65368
0.67389 0.67389
0.693435 0.693435
0.712296 0.712296
0.730454 0.730454
0.747891 0.747891
0.764589 0.764589
0.780533 0.780533
0.795707 0.795707
0.810096 0.810096
0.823685 0.823685
0.836462 0.836462
0.848412 0.848412
0.859526 0.859526
0.869791 0.869791
0.879198 0.879198
0.887737 0.887737
0.8954 0.8954
0.90218 0.90218
0.908069 0.908069
0.913062 0.913062
0.917154 0.917154
0.920341 0.920341
0.922619 0.922619
0.923987 0.923987
0.924444 0.924444
0.923987 0.923987
0.922619 0.922619
0.920341 0.920341
0.917154 0.917154
0.913062 0.913062
0.908069 0.908069
0.90218 0.90218
0.8954 0.8954
0.887737 0.887737
0.879198 0.879198
0.869791 0.869791
0.859526 0.859526
0.848412 0.848412
0.836462 0.836462
0.823685 0.823685
0.810096 0.810096
0.795707 0.795707
0.780533 0.780533
0.764589 0.764589
0.747891 0.747891
0.730454 0.730454
0.712296 0.712296
0.693435 0.693435
0.67389 0.67389
0.65368 0.65368
0.632825 0.632825
0.611345 0.611345
0.589262 0.589262
0.566598 0.566598
0.543374 0.543374
0.519614 0.519614
0.495342 0.495342
0.47058 0.47058
0.445354 0.445354
0.419689 0.419689
0.393609 0.393609
0.367141 0.367141
0.34031 0.34031
0.313144 0.313144
0.285669 0.285669
0.257912 0.257912
0.2299 0.2299
0.201661 0.201661
0.173223 0.173223
0.144615 0.144615
0.115863 0.115863
0.0869978 0.0869978
0.0580463 0.0580463
0.0290375 0.0290375
0 0
-3.54063e-14 -3.54063e-14
0.0287537 0.0287537
0.057479 0.057479
0.0861476 0.0861476
0.114731 0.114731
0.143202 0.143202
0.171531 0.171531
0.19969 0.19969
0.227653 0.227653
0.255391 0.255391
0.282877 0.282877
0.310084 0.310084
0.336985 0.336985
0.363553 0.363553
0.389762 0.389762
0.415587 0.415587
0.441002 0.441002
0.465981 0.465981
0.490501 0.490501
0.514536 0.514536
0.538064 0.538064
0.561061 0.561061
0.583504 0.583504
0.605371 0.605371
0.626641 0.626641
0.647292 0.647292
0.667305 0.667305
0.686659 0.686659
0.705335 0.705335
0.723315 0.723315
0.740582 0.740582
0.757117 0.757117
0.772906 0.772906
0.787931 0.787931
0.802179 0.802179
0.815636 0.815636
0.828287 0.828287
0.840121 0.840121
0.851126 0.851126
0.861291 0.861291
0.870606 0.870606
0.879062 0.879062
0.88665 0.88665
0.893364 0.893364
0.899195 0.899195
0.904139 0.904139
0.908191 0.908191
0.911347 0.911347
0.913603 0.913603
0.914958 0.914958
0.91541 0.91541
0.914958 0.914958
0.913603 0.913603
0.911347 0.911347
0.908191 0.908191
0.904139 0.904139
0.899195 0.899195
0.893364 0.893364
0.88665 0.88665
0.879062 0.879062
0.870606 0.870606
0.861291 0.861291
0.851126 0.851126
0.840121 0.840121
0.828287 0.828287
0.815636 0.815636
0.802179 0.802179
0.787931 0.787931
0.772906 0.772906
0.757117 0.757117
0.740582 0.740582
0.723315 0.723315
0.705335 0.705335
0.686659 0.686659
0.667305 0.667305
0.647292 0.647292
0.626641 0.626641
0.605371 0.605371
0.583504 0.583504
0.561061 0.561061
0.538064 0.538064
0.514536 0.514536
0.490501 0.490501
0.465981 0.465981
0.441002 0.441002
0.415587 0.415587
0.389762 0.389762
0.363553 0.363553
0.336985 0.336985
0.310084 0.310084
0.282877 0.282877
0.255391 0.255391
0.227653 0.227653
0.19969 0.19969
0.171531 0.171531
0.143202 0.143202
0.114731 0.114731
0.0861476 0.0861476
0.057479 0.057479
0.0287537 0.0287537
0 0
1.26398e-13 1.26398e-13
0.0284727 0.0284727
0.0569173 0.0569173
0.0853058 0.0853058
0.11361 0.11361
0.141802 0.141802
0.169854 0.169854
0.197739 0.197739
0.225428 0.225428
0.252895 0.252895
0.280113 0.280113
0.307054 0.307054
0.333692 0.333692
0.36 0.36
0.385954 0.385954
0.411526 0.411526
0.436692 0.436692
0.461428 0.461428
0.485708 0.485708
0.509508 0.509508
0.532806 0.532806
0.555578 0.555578
0.577802 0.577802
0.599455 0.599455
0.620517 0.620517
0.640967 0.640967
0.660784 0.660784
0.679949 0.679949
0.698442 0.698442
0.716247 0.716247
0.733345 0.733345
0.749719 0.749719
0.765353 0.765353
0.780232 0.780232
0.79434 0.79434
0.807665 0.807665
0.820193 0.820193
0.831911 0.831911
0.842809 0.842809
0.852874 0.852874
0.862098 0.862098
0.870471 0.870471
0.877986 0.877986
0.884633 0.884633
0.890408 0.890408
0.895304 0.895304
0.899316 0.899316
0.902441 0.902441
0.904675 0.904675
0.906017 0.906017
0.906464 0.906464
0.906017 0.906017
0.904675 0.904675
0.902441 0.902441
0.899316 0.899316
0.895304 0.895304
0.890408 0.890408
0.884633 0.884633
0.877986 0.877986
0.870471 0.870471
0.862098 0.862098
0.852874 0.852874
0.842809 0.842809
0.831911 0.831911
0.820193 0.820193
0.807665 0.807665
0.79434 0.79434
0.780232 0.780232
0.765353 0.765353
0.749719 0.749719
0.733345 0.733345
0.716247 0.716247
0.698442 0.698442
0.679949 0.679949
0.660784 0.660784
0.640967 0.640967
0.620517 0.620517
0.599455 0.599455
0.577802 0.577802
0.555578 0.555578
0.532806 0.532806
0.509508 0.509508
0.485708 0.485708
0.461428 0.461428
0.436692 0.436692
0.411526 0.411526
0.385954 0.385954
0.36 0.36
0.333692 0.333692
0.307054 0.307054
0.280113 0.280113
0.252895 0.252895
0.225428 0.225428
0.197739 0.197739
0.169854 0.169854
0.141802 0.141802
0.11361 0.11361
0.0853058 0.0853058
0.0569173 0.0569173
0.0284727 0.0284727
0 0
4.73719e-14 4.73719e-14
0.0281945 0.0281945
0.0563611 0.0563611
0.0844721 0.0844721
0.1125 0.1125
0.140416 0.140416
0.168195 0.168195
0.195807 0.195807
0.223225 0.223225
0.250424 0.250424
0.277375 0.277375
0.304053 0.304053
0.330431 0.330431
0.356482 0.356482
0.382182 0.382182
0.407504 0.407504
0.432425 0.432425
0.456918 0.456918
0.480961 0.480961
0.504529 0.504529
0.527599 0.527599
0.550149 0.550149
0.572155 0.572155
0.593597 0.593597
0.614453 0.614453
0.634703 0.634703
0.654326 0.654326
0.673304 0.673304
0.691617 0.691617
0.709248 0.709248
0.726178 0.726178
0.742392 0.742392
0.757873 0.757873
0.772607 0.772607
0.786578 0.786578
0.799772 0.799772
0.812178 0.812178
0.823782 0.823782
0.834573 0.834573
0.84454 0.84454
0.853674 0.853674
0.861965 0.861965
0.869406 0.869406
0.875988 0.875988
0.881706 0.881706
0.886555 0.886555
0.890528 0.890528
0.893622 0.893622
0.895834 0.895834
0.897163 0.897163
0.897606 0.897606
0.897163 0.897163
0.895834 0.895834
0.893622 0.893622
0.890528 0.890528
0.886555 0.886555
0.881706 0.881706
0.875988 0.875988
0.869406 0.869406
0.861965 0.861965
0.853674 0.853674
0.84454 0.84454
0.834573 0.834573
0.823782 0.823782
0.812178 0.812178
0.799772 0.799772
0.786578 0.786578
0.772607 0.772607
0.757873 0.757873
0.742392 0.742392
0.726178 0.726178
0.709248 0.709248
0.691617 0.691617
0.673304 0.673304
0.654326 0.654326
0.634703 0.634703
0.614453 0.614453
0.593597 0.593597
0.572155 0.572155
0.550149 0.550149
0.527599 0.527599
0.504529 0.504529
0.480961 0.480961
0.456918 0.456918
0.432425 0.432425
0.407504 0.407504
0.382182 0.382182
0.356482 0.356482
0.330431 0.330431
0.304053 0.304053
0.277375 0.277375
0.250424 0.250424
0.223225 0.223225
0.195807 0.195807
0.168195 0.168195
0.140416 0.140416
0.1125 0.1125
0.0844721 0.0844721
0.0563611 0.0563611
0.0281945 0.0281945
0 0
3.67564e-14 3.67564e-14
0.0279189 0.0279189
0.0558103 0.0558103
0.0836467 0.0836467
0.1114 0.1114
0.139044 0.139044
0.166551 0.166551
0.193893 0.193893
0.221044 0.221044
0.247977 0.247977
0.274665 0.274665
0.301082 0.301082
0.327202 0.327202
0.352998 0.352998
0.378447 0.378447
0.403522 0.403522
0.428199 0.428199
0.452453 0.452453
0.476261 0.476261
0.499599 0.499599
0.522443 0.522443
0.544773 0.544773
0.566564 0.566564
0.587796 0.587796
0.608449 0.608449
0.6285 0.6285
0.647932 0.647932
0.666724 0.666724
0.684858 0.684858
0.702317 0.702317
0.719082 0.719082
0.735137 0.735137
0.750467 0.750467
0.765057 0.765057
0.778891 0.778891
0.791957 0.791957
0.804241 0.804241
0.815731 0.815731
0.826417 0.826417
0.836287 0.836287
0.845331 0.845331
0.853542 0.853542
0.860909 0.860909
0.867428 0.867428
0.87309 0.87309
0.877891 0.877891
0.881825 0.881825
0.884889 0.884889
0.88708 0.88708
0.888395 0.888395
0.888834 0.888834
0.888395 0.888395
0.88708 0.88708
0.884889 0.884889
0.881825 0.881825
0.877891 0.877891
0.87309 0.87309
0.867428 0.867428
0.860909 0.860909
0.853542 0.853542
0.845331 0.845331
0.836287 0.836287
0.826417 0.826417
0.815731 0.815731
0.804241 0.804241
0.791957 0.791957
0.778891 0.778891
0.765057 0.765057
0.750467 0.750467
0.735137 0.735137
0.719082 0.719082
0.702317 0.702317
0.684858 0.684858
0.666724 0.666724
0.647932 0.647932
0.6285 0.6285
0.608449 0.608449
0.587796 0.587796
0.566564 0.566564
0.544773 0.544773
0.522443 0.522443
0.499599 0.499599
0.476261 0.476261
0.452453 0.452453
0.428199 0.428199
0.403522 0.403522
0.378447 0.378447
0.352998 0.352998
0.327202 0.327202
0.301082 0.301082
0.274665 0.274665
0.247977 0.247977
0.221044 0.221044
0.193893 0.193893
0.166551 0.166551
0.139044 0.139044
0.1114 0.1114
0.0836467 0.0836467
0.0558103 0.0558103
0.0279189 0.0279189
0 0
-8.1144e-15 -8.1144e-15
0.0276461 0.0276461
0.0552649 0.0552649
0.0828292 0.0828292
0.110312 0.110312
0.137685 0.137685
0.164923 0.164923
0.191998 0.191998
0.218884 0.218884
0.245553 0.245553
0.271981 0.271981
0.298139 0.298139
0.324004 0.324004
0.349549 0.349549
0.374749 0.374749
0.399579 0.399579
0.424014 0.424014
0.448032 0.448032
0.471607 0.471607
0.494716 0.494716
0.517338 0.517338
0.539449 0.539449
0.561027 0.561027
0.582052 0.582052
0.602503 0.602503
0.622359 0.622359
0.6416 0.6416
0.660209 0.660209
0.678166 0.678166
0.695453 0.695453
0.712055 0.712055
0.727953 0.727953
0.743133 0.743133
0.75758 0.75758
0.771279 0.771279
0.784217 0.784217
0.796382 0.796382
0.80776 0.80776
0.818341 0.818341
0.828114 0.828114
0.83707 0.83707
0.8452 0.8452
0.852496 0.852496
0.858951 0.858951
0.864558 0.864558
0.869312 0.869312
0.873208 0.873208
0.876242 0.876242
0.878411 0.878411
0.879714 0.879714
0.880148 0.880148
0.879714 0.879714
0.878411 0.878411
0.876242 0.876242
0.873208 0.873208
0.869312 0.869312
0.864558 0.864558
0.858951 0.858951
0.852496 0.852496
0.8452 0.8452
0.83707 0.83707
0.828114 0.828114
0.818341 0.818341
0.80776 0.80776
0.796382 0.796382
0.784217 0.784217
0.771279 0.771279
0.75758 0.75758
0.743133 0.743133
0.727953 0.727953
0.712055 0.712055
0.695453 0.695453
0.678166 0.678166
0.660209 0.660209
0.6416 0.6416
0.622359 0.622359
0.602503 0.602503
0.582052 0.582052
0.561027 0.561027
0.539449 0.539449
0.517338 0.517338
0.494716 0.494716
0.471607 0.471607
0.448032 0.448032
0.424014 0.424014
0.399579 0.399579
0.374749 0.374749
0.349549 0.349549
0.324004 0.324004
0.298139 0.298139
0.271981 0.271981
0.245553 0.245553
0.218884 0.218884
0.191998 0.191998
0.164923 0.164923
0.137685 0.137685
0.110312 0.110312
0.0828292 0.0828292
0.0552649 0.0552649
0.0276461 0.0276461
0 0
1.25269e-13 1.25269e-13
0.0273759 0.0273759
0.0547249 0.0547249
0.0820198 0.0820198
0.109234 0.109234
0.13634 0.13634
0.163312 0.163312
0.190122 0.190122
0.216745 0.216745
0.243154 0.243154
0.269323 0.269323
0.295226 0.295226
0.320838 0.320838
0.346133 0.346133
0.371087 0.371087
0.395674 0.395674
0.419871 0.419871
0.443653 0.443653
0.466998 0.466998
0.489882 0.489882
0.512282 0.512282
0.534177 0.534177
0.555545 0.555545
0.576364 0.576364
0.596615 0.596615
0.616277 0.616277
0.63533 0.63533
0.653757 0.653757
0.671538 0.671538
0.688657 0.688657
0.705096 0.705096
0.720839 0.720839
0.735871 0.735871
0.750177 0.750177
0.763742 0.763742
0.776554 0.776554
0.788599 0.788599
0.799866 0.799866
0.810344 0.810344
0.820022 0.820022
0.82889 0.82889
0.836941 0.836941
0.844165 0.844165
0.850557 0.850557
0.856109 0.856109
0.860817 0.860817
0.864674 0.864674
0.867679 0.867679
0.869827 0.869827
0.871117 0.871117
0.871547 0.871547
0.871117 0.871117
0.869827 0.869827
0.867679 0.867679
0.864674 0.864674
0.860817 0.860817
0.856109 0.856109
0.850557 0.850557
0.844165 0.844165
0.836941 0.836941
0.82889 0.82889
0.820022 0.820022
0.810344 0.810344
0.799866 0.799866
0.788599 0.788599
0.776554 0.776554
0.763742 0.763742
0.750177 0.750177
0.735871 0.735871
0.720839 0.720839
0.705096 0.705096
0.688657 0.688657
0.671538 0.671538
0.653757 0.653757
0.63533 0.63533
0.616277 0.616277
0.596615 0.596615
0.576364 0.576364
0.555545 0.555545
0.534177 0.534177
0.512282 0.512282
0.489882 0.489882
0.466998 0.466998
0.443653 0.443653
0.419871 0.419871
0.395674 0.395674
0.371087 0.371087
0.346133 0.346133
0.320838 0.320838
0.295226 0.295226
0.269323 0.269323
0.243154 0.243154
0.216745 0.216745
0.190122 0.190122
0.163312 0.163312
0.13634 0.13634
0.109234 0.109234
0.0820198 0.0820198
0.0547249 0.0547249
0.0273759 0.0273759
0 0
4.04512e-14 4.04512e-14
0.0271084 0.0271084
0.0541901 0.0541901
0.0812183 0.0812183
0.108166 0.108166
0.135008 0.135008
0.161716 0.161716
0.188264 0.188264
0.214627 0.214627
0.240778 0.240778
0.266691 0.266691
0.292341 0.292341
0.317702 0.317702
0.34275 0.34275
0.36746 0.36746
0.391807 0.391807
0.415768 0.415768
0.439318 0.439318
0.462434 0.462434
0.485095 0.485095
0.507276 0.507276
0.528957 0.528957
0.550116 0.550116
0.570732 0.570732
0.590784 0.590784
0.610254 0.610254
0.629122 0.629122
0.647368 0.647368
0.664976 0.664976
0.681927 0.681927
0.698206 0.698206
0.713795 0.713795
0.72868 0.72868
0.742846 0.742846
0.756279 0.756279
0.768965 0.768965
0.780893 0.780893
0.792049 0.792049
0.802425 0.802425
0.812008 0.812008
0.82079 0.82079
0.828762 0.828762
0.835916 0.835916
0.842245 0.842245
0.847743 0.847743
0.852404 0.852404
0.856224 0.856224
0.8592 0.8592
0.861327 0.861327
0.862604 0.862604
0.86303 0.86303
0.862604 0.862604
0.861327 0.861327
0.8592 0.8592
0.856224 0.856224
0.852404 0.852404
0.847743 0.847743
0.842245 0.842245
0.835916 0.835916
0.828762 0.828762
0.82079 0.82079
0.812008 0.812008
0.802425 0.802425
0.792049 0.792049
0.780893 0.780893
0.768965 0.768965
0.756279 0.756279
0.742846 0.742846
0.72868 0.72868
0.713795 0.713795
0.698206 0.698206
0.681927 0.681927
0.664976 0.664976
0.647368 0.647368
0.629122 0.629122
0.610254 0.610254
0.590784 0.590784
0.570732 0.570732
0.550116 0.550116
0.528957 0.528957
0.507276 0.507276
0.485095 0.485095
0.462434 0.462434
0.439318 0.439318
0.415768 0.415768
0.391807 0.391807
0.36746 0.36746
0.34275 0.34275
0.317702 0.317702
0.292341 0.292341
0.266691 0.266691
0.240778 0.240778
0.214627 0.214627
0.188264 0.188264
0.161716 0.161716
0.135008 0.135008
0.108166 0.108166
0.0812183 0.0812183
0.0541901 0.0541901
0.0271084 0.0271084
0 0
7.82379e-14 7.82379e-14
0.0268435 0.0268435
0.0536605 0.0536605
0.0804246 0.0804246
0.107109 0.107109
0.133688 0.133688
0.160135 0.160135
0.186424 0.186424
0.212529 0.212529
0.238425 0.238425
0.264085 0.264085
0.289484 0.289484
0.314598 0.314598
0.339401 0.339401
0.363869 0.363869
0.387978 0.387978
0.411705 0.411705
0.435025 0.435025
0.457915 0.457915
0.480354 0.480354
0.502319 0.502319
0.523788 0.523788
0.54474 0.54474
0.565154 0.565154
0.585011 0.585011
0.604291 0.604291
0.622974 0.622974
0.641042 0.641042
0.658477 0.658477
0.675263 0.675263
0.691383 0.691383
0.70682 0.70682
0.721559 0.721559
0.735587 0.735587
0.748888 0.748888
0.76145 0.76145
0.773261 0.773261
0.784309 0.784309
0.794583 0.794583
0.804073 0.804073
0.812769 0.812769
0.820663 0.820663
0.827747 0.827747
0.834014 0.834014
0.839459 0.839459
0.844074 0.844074
0.847857 0.847857
0.850803 0.850803
0.852909 0.852909
0.854174 0.854174
0.854596 0.854596
0.854174 0.854174
0.852909 0.852909
0.850803 0.850803
0.847857 0.847857